# vtk DataFile Version 3.0
MOAB 5.0.1
ASCII
DATASET UNSTRUCTURED_GRID
POINTS 14 double
0 0 0
1 0 0
1 1 0
0 1 0
0 0 1
1 0 1
1 1 1
0 1 1
0.5 0.5 0
0.5 0.5 1
0.5 0 0.5
1 0.5 0.5
0.5 1 0.5
0 0.5 0.5
CELLS 24 120
4 12 9 13 11
4 8 11 13 10
4 11 9 13 10
4 13 12 11 8
4 11 12 6 2
4 9 5 4 10
4 5 9 6 11
4 0 13 4 10
4 4 13 7 9
4 3 7 13 12
4 6 9 7 12
4 0 3 13 8
4 12 3 2 8
4 8 2 11 1
4 10 11 5 1
4 0 8 10 1
4 4 13 9 10
4 12 6 9 11
4 9 13 7 12
4 12 13 3 8
4 2 11 12 8
4 8 13 0 10
4 5 9 11 10
4 10 8 11 1
CELL_TYPES 24
10
10
10
10
10
10
10
10
10
10
10
10
10
10
10
10
10
10
10
10
10
10
10
10
POINT_DATA 14
SCALARS GLOBAL_ID int 1
LOOKUP_TABLE default
1 
2 
3 
4 
5 
6 
7 
8 
9 
10 
11 
12 
13 
14 
SCALARS Neumann double 1
LOOKUP_TABLE default
0 
0 
0 
0 
0 
0 
0 
0 
0 
0 
0 
0 
0 
0 
CELL_DATA 24
SCALARS GLOBAL_ID int 1
LOOKUP_TABLE default
27 
28 
29 
30 
31 
32 
33 
34 
35 
36 
37 
38 
39 
40 
41 
42 
43 
44 
45 
46 
47 
48 
49 
50 
SCALARS Water_Sat double 1
LOOKUP_TABLE default
0.2 
0.2 
0.2 
0.2 
0.2 
0.2 
0.2 
0.2 
0.2 
0.2 
0.2 
0.2 
0.2 
0.2 
0.2 
0.2 
0.2 
0.2 
0.2 
0.2 
0.2 
0.2 
0.2 
0.2 
SCALARS Oil_Sat_i double 1
LOOKUP_TABLE default
0.1 
0.1 
0.1 
0.1 
0.1 
0.1 
0.1 
0.1 
0.1 
0.1 
0.1 
0.1 
0.1 
0.1 
0.1 
0.1 
0.1 
0.1 
0.1 
0.1 
0.1 
0.1 
0.1 
0.1 
SCALARS Water_Sat_i double 1
LOOKUP_TABLE default
0.15 
0.15 
0.15 
0.15 
0.15 
0.15 
0.15 
0.15 
0.15 
0.15 
0.15 
0.15 
0.15 
0.15 
0.15 
0.15 
0.15 
0.15 
0.15 
0.15 
0.15 
0.15 
0.15 
0.15 
TENSORS Abs_Permeability double
1 0 0 0 1 0 0 0 1 
1 0 0 0 1 0 0 0 1 
1 0 0 0 1 0 0 0 1 
1 0 0 0 1 0 0 0 1 
1 0 0 0 1 0 0 0 1 
1 0 0 0 1 0 0 0 1 
1 0 0 0 1 0 0 0 1 
1 0 0 0 1 0 0 0 1 
1 0 0 0 1 0 0 0 1 
1 0 0 0 1 0 0 0 1 
1 0 0 0 1 0 0 0 1 
1 0 0 0 1 0 0 0 1 
1 0 0 0 1 0 0 0 1 
1 0 0 0 1 0 0 0 1 
1 0 0 0 1 0 0 0 1 
1 0 0 0 1 0 0 0 1 
1 0 0 0 1 0 0 0 1 
1 0 0 0 1 0 0 0 1 
1 0 0 0 1 0 0 0 1 
1 0 0 0 1 0 0 0 1 
1 0 0 0 1 0 0 0 1 
1 0 0 0 1 0 0 0 1 
1 0 0 0 1 0 0 0 1 
1 0 0 0 1 0 0 0 1 
